
     Program PWSCF v.6.5 starts on  2Jan2020 at 17:16:27 

     This program is part of the open-source Quantum ESPRESSO suite
     for quantum simulation of materials; please cite
         "P. Giannozzi et al., J. Phys.:Condens. Matter 21 395502 (2009);
         "P. Giannozzi et al., J. Phys.:Condens. Matter 29 465901 (2017);
          URL http://www.quantum-espresso.org", 
     in publications or presentations arising from this work. More details at
     http://www.quantum-espresso.org/quote

     Parallel version (MPI), running on    24 processors

     MPI processes distributed on     1 nodes
     R & G space division:  proc/nbgrp/npool/nimage =      24
     Reading input from Cu.in
     Message from routine read_cards :
     DEPRECATED: no units specified in ATOMIC_POSITIONS card
     Message from routine read_cards :
     ATOMIC_POSITIONS: units set to alat

     Current dimensions of program PWSCF are:
     Max number of different atomic species (ntypx) = 10
     Max number of k-points (npk) =  40000
     Max angular momentum in pseudopotentials (lmaxx) =  3
               file Cu.pbesol-dn-kjpaw_psl.1.0.0.UPF: wavefunction(s)  4S 3D renormalized

     Subspace diagonalization in iterative solution of the eigenvalue problem:
     a serial algorithm will be used


     Parallelization info
     --------------------
     sticks:   dense  smooth     PW     G-vecs:    dense   smooth      PW
     Min           8       8      3                   75       75      16
     Max           9       9      4                   76       76      18
     Sum         199     199     73                 1807     1807     411



     bravais-lattice index     =            2
     lattice parameter (alat)  =       6.8240  a.u.
     unit-cell volume          =      79.4433 (a.u.)^3
     number of atoms/cell      =            1
     number of atomic types    =            1
     number of electrons       =        11.00
     number of Kohn-Sham states=           10
     kinetic-energy cutoff     =      30.0000  Ry
     charge density cutoff     =     120.0000  Ry
     convergence threshold     =      1.0E-06
     mixing beta               =       0.7000
     number of iterations used =            8  plain     mixing
     Exchange-correlation= SLA PW PSX PSC
                           (   1   4  10   8   0   0   0)

     celldm(1)=   6.824000  celldm(2)=   0.000000  celldm(3)=   0.000000
     celldm(4)=   0.000000  celldm(5)=   0.000000  celldm(6)=   0.000000

     crystal axes: (cart. coord. in units of alat)
               a(1) = (  -0.500000   0.000000   0.500000 )  
               a(2) = (   0.000000   0.500000   0.500000 )  
               a(3) = (  -0.500000   0.500000   0.000000 )  

     reciprocal axes: (cart. coord. in units 2 pi/alat)
               b(1) = ( -1.000000 -1.000000  1.000000 )  
               b(2) = (  1.000000  1.000000  1.000000 )  
               b(3) = ( -1.000000  1.000000 -1.000000 )  


     PseudoPot. # 1 for Cu read from file:
     ./Cu.pbesol-dn-kjpaw_psl.1.0.0.UPF
     MD5 check sum: 1e9735a74797514c934643dbd229f231
     Pseudo is Projector augmented-wave + core cor, Zval = 11.0
     Generated using "atomic" code by A. Dal Corso v.6.3
     Shape of augmentation charge: PSQ
     Using radial grid of 1199 points,  6 beta functions with: 
                l(1) =   0
                l(2) =   0
                l(3) =   1
                l(4) =   1
                l(5) =   2
                l(6) =   2
     Q(r) pseudized with 0 coefficients 


     atomic species   valence    mass     pseudopotential
        Cu            11.00    63.54600     Cu( 1.00)

     48 Sym. Ops., with inversion, found



   Cartesian axes

     site n.     atom                  positions (alat units)
         1           Cu  tau(   1) = (   0.0000000   0.0000000   0.0000000  )

     number of k points=    29  Methfessel-Paxton smearing, width (Ry)=  0.0600
                       cart. coord. in units 2pi/alat
        k(    1) = (   0.0000000   0.0000000   0.0000000), wk =   0.0039062
        k(    2) = (  -0.1250000   0.1250000  -0.1250000), wk =   0.0312500
        k(    3) = (  -0.2500000   0.2500000  -0.2500000), wk =   0.0312500
        k(    4) = (  -0.3750000   0.3750000  -0.3750000), wk =   0.0312500
        k(    5) = (   0.5000000  -0.5000000   0.5000000), wk =   0.0156250
        k(    6) = (   0.0000000   0.2500000   0.0000000), wk =   0.0234375
        k(    7) = (  -0.1250000   0.3750000  -0.1250000), wk =   0.0937500
        k(    8) = (  -0.2500000   0.5000000  -0.2500000), wk =   0.0937500
        k(    9) = (   0.6250000  -0.3750000   0.6250000), wk =   0.0937500
        k(   10) = (   0.5000000  -0.2500000   0.5000000), wk =   0.0937500
        k(   11) = (   0.3750000  -0.1250000   0.3750000), wk =   0.0937500
        k(   12) = (   0.2500000   0.0000000   0.2500000), wk =   0.0468750
        k(   13) = (   0.0000000   0.5000000   0.0000000), wk =   0.0234375
        k(   14) = (  -0.1250000   0.6250000  -0.1250000), wk =   0.0937500
        k(   15) = (   0.7500000  -0.2500000   0.7500000), wk =   0.0937500
        k(   16) = (   0.6250000  -0.1250000   0.6250000), wk =   0.0937500
        k(   17) = (   0.5000000   0.0000000   0.5000000), wk =   0.0468750
        k(   18) = (   0.0000000   0.7500000   0.0000000), wk =   0.0234375
        k(   19) = (   0.8750000  -0.1250000   0.8750000), wk =   0.0937500
        k(   20) = (   0.7500000   0.0000000   0.7500000), wk =   0.0468750
        k(   21) = (   0.0000000  -1.0000000   0.0000000), wk =   0.0117188
        k(   22) = (  -0.2500000   0.5000000   0.0000000), wk =   0.0937500
        k(   23) = (   0.6250000  -0.3750000   0.8750000), wk =   0.1875000
        k(   24) = (   0.5000000  -0.2500000   0.7500000), wk =   0.0937500
        k(   25) = (   0.7500000  -0.2500000   1.0000000), wk =   0.0937500
        k(   26) = (   0.6250000  -0.1250000   0.8750000), wk =   0.1875000
        k(   27) = (   0.5000000   0.0000000   0.7500000), wk =   0.0937500
        k(   28) = (  -0.2500000  -1.0000000   0.0000000), wk =   0.0468750
        k(   29) = (  -0.5000000  -1.0000000   0.0000000), wk =   0.0234375

     Dense  grid:     1807 G-vectors     FFT dimensions: (  18,  18,  18)

     Estimated max dynamical RAM per process >       1.27 MB

     Estimated total dynamical RAM >      30.48 MB
     Message from routine sym_rho_init:
     some processors have no G-vectors for symmetrization
     Message from routine sym_rho_init:
     some processors have no G-vectors for symmetrization
     Message from routine sym_rho_init:
     some processors have no G-vectors for symmetrization
     Message from routine sym_rho_init:
     some processors have no G-vectors for symmetrization

     Check: negative core charge=   -0.000037

     Initial potential from superposition of free atoms

     starting charge   10.99979, renormalised to   11.00000
     Starting wfcs are    9 randomized atomic wfcs +    1 random wfcs
     Checking if some PAW data can be deallocated... 

     total cpu time spent up to now is        1.2 secs

     Self-consistent Calculation

     iteration #  1     ecut=    30.00 Ry     beta= 0.70
     Davidson diagonalization with overlap
     ethr =  1.00E-02,  avg # of iterations =  3.7

     Threshold (ethr) on eigenvalues was too large:
     Diagonalizing with lowered threshold

     Davidson diagonalization with overlap
     ethr =  7.29E-04,  avg # of iterations =  1.1

     total cpu time spent up to now is        1.3 secs

     total energy              =    -210.35559646 Ry
     Harris-Foulkes estimate   =    -210.41995265 Ry
     estimated scf accuracy    <       0.07997022 Ry

     iteration #  2     ecut=    30.00 Ry     beta= 0.70
     Davidson diagonalization with overlap
     ethr =  7.27E-04,  avg # of iterations =  2.0

     total cpu time spent up to now is        1.4 secs

     total energy              =    -210.36147498 Ry
     Harris-Foulkes estimate   =    -210.46527716 Ry
     estimated scf accuracy    <       0.26090735 Ry

     iteration #  3     ecut=    30.00 Ry     beta= 0.70
     Davidson diagonalization with overlap
     ethr =  7.27E-04,  avg # of iterations =  2.0

     total cpu time spent up to now is        1.6 secs

     total energy              =    -210.40342916 Ry
     Harris-Foulkes estimate   =    -210.40348329 Ry
     estimated scf accuracy    <       0.00011286 Ry

     iteration #  4     ecut=    30.00 Ry     beta= 0.70
     Davidson diagonalization with overlap
     ethr =  1.03E-06,  avg # of iterations =  2.7

     total cpu time spent up to now is        1.7 secs

     total energy              =    -210.40349975 Ry
     Harris-Foulkes estimate   =    -210.40350674 Ry
     estimated scf accuracy    <       0.00001932 Ry

     iteration #  5     ecut=    30.00 Ry     beta= 0.70
     Davidson diagonalization with overlap
     ethr =  1.76E-07,  avg # of iterations =  1.1

     total cpu time spent up to now is        1.8 secs

     End of self-consistent calculation

          k = 0.0000 0.0000 0.0000 (   229 PWs)   bands (ev):

     3.0800   9.4745   9.4745   9.4745  10.3130  10.3130  35.4608  37.8458
    37.8458  37.8458

          k =-0.1250 0.1250-0.1250 (   220 PWs)   bands (ev):

     3.6439   9.3590   9.5731   9.5731  10.2849  10.2849  31.4750  36.0035
    36.6809  36.6809

          k =-0.2500 0.2500-0.2500 (   217 PWs)   bands (ev):

     5.2057   9.2092   9.6328   9.6328  10.4000  10.4000  25.0316  35.2718
    35.4298  35.4298

          k =-0.3750 0.3750-0.3750 (   226 PWs)   bands (ev):

     6.9258   9.5072   9.5072   9.8614  10.7123  10.7123  19.4225  34.2872
    34.7716  34.7716

          k = 0.5000-0.5000 0.5000 (   228 PWs)   bands (ev):

     7.3803   9.4355   9.4355  10.8723  10.8723  11.4510  16.2825  33.8633
    34.6018  34.6018

          k = 0.0000 0.2500 0.0000 (   218 PWs)   bands (ev):

     3.8299   9.2568   9.6504   9.6504  10.1270  10.4045  33.7038  33.8783
    33.8783  35.6624

          k =-0.1250 0.3750-0.1250 (   219 PWs)   bands (ev):

     5.0609   9.0354   9.6871   9.7983  10.1870  10.5160  27.4966  32.0616
    33.4899  35.9173

          k =-0.2500 0.5000-0.2500 (   228 PWs)   bands (ev):

     6.8360   9.0672   9.4366   9.7339  10.7731  10.9248  21.5317  31.3202
    32.0665  33.7078

          k = 0.6250-0.3750 0.6250 (   223 PWs)   bands (ev):

     7.6426   9.2345   9.6285   9.8077  10.8889  12.6196  16.9732  30.0763
    31.8307  33.4295

          k = 0.5000-0.2500 0.5000 (   220 PWs)   bands (ev):

     7.5370   9.3116   9.6339   9.6583  10.6741  12.0671  18.2315  28.9157
    33.6502  34.2573

          k = 0.3750-0.1250 0.3750 (   217 PWs)   bands (ev):

     6.2735   9.0695   9.5207   9.7646  10.2497  10.9705  23.4490  28.8398
    36.1669  36.6763

          k = 0.2500 0.0000 0.2500 (   216 PWs)   bands (ev):

     4.5477   9.1753   9.6540   9.7277  10.1068  10.4902  29.3921  30.0673
    38.1764  39.2344

          k = 0.0000 0.5000 0.0000 (   218 PWs)   bands (ev):

     5.8493   8.7398   9.8376  10.1394  10.1394  10.5967  29.6580  29.6580
    31.0148  31.7532

          k =-0.1250 0.6250-0.1250 (   219 PWs)   bands (ev):

     7.1617   8.5463   9.6535  10.2361  10.8068  11.0778  24.5006  27.7446
    28.4499  32.2264

          k = 0.7500-0.2500 0.7500 (   223 PWs)   bands (ev):

     8.0328   8.6147   9.4823  10.1197  10.9208  13.4403  19.2386  25.1396
    28.6407  32.2890

          k = 0.6250-0.1250 0.6250 (   225 PWs)   bands (ev):

     8.2822   8.8017   9.3057  10.0177  10.6875  14.6360  17.7768  23.5383
    30.2491  32.9475

          k = 0.5000 0.0000 0.5000 (   218 PWs)   bands (ev):

     7.7546   8.9574   9.1713   9.9779  10.3027  12.2069  22.2830  23.4690
    33.0696  34.3924

          k = 0.0000 0.7500 0.0000 (   218 PWs)   bands (ev):

     7.4638   8.2480  10.7381  10.7381  10.7918  11.2508  23.9919  26.6967
    26.6967  30.6666

          k = 0.8750-0.1250 0.8750 (   221 PWs)   bands (ev):

     7.7625   8.2033  10.3753  10.6614  10.9590  13.8000  21.3129  22.7780
    26.4133  31.4615

          k = 0.7500 0.0000 0.7500 (   224 PWs)   bands (ev):

     8.1743   8.4078   9.7192  10.4369  10.8170  16.8297  18.2574  20.3868
    27.6896  31.9825

          k = 0.0000-1.0000 0.0000 (   222 PWs)   bands (ev):

     7.5883   8.0484  10.8741  11.0141  11.0141  13.9585  19.6797  25.5981
    25.5981  30.3041

          k =-0.2500 0.5000 0.0000 (   219 PWs)   bands (ev):

     6.4415   8.8212   9.4605  10.1512  10.1944  11.0030  25.9149  26.5516
    31.8920  36.5841

          k = 0.6250-0.3750 0.8750 (   223 PWs)   bands (ev):

     7.8361   8.8717   9.1878  10.0289  10.6477  12.3546  20.5418  26.0328
    28.9634  36.5525

          k = 0.5000-0.2500 0.7500 (   224 PWs)   bands (ev):

     8.1559   8.8648   9.3916   9.9246  10.8197  14.6068  16.7819  26.7902
    27.1096  36.2395

          k = 0.7500-0.2500 1.0000 (   218 PWs)   bands (ev):

     7.8702   8.4347   9.6213  10.5862  10.7304  12.7295  23.4823  24.2190
    24.6275  34.9359

          k = 0.6250-0.1250 0.8750 (   218 PWs)   bands (ev):

     8.2965   8.5594   9.3597  10.3351  10.9038  15.8455  18.9086  22.3413
    24.5632  35.9854

          k = 0.5000 0.0000 0.7500 (   223 PWs)   bands (ev):

     8.5329   8.7297   8.9709  10.2183  10.7327  14.9521  19.7106  21.6839
    26.2900  37.0896

          k =-0.2500-1.0000 0.0000 (   216 PWs)   bands (ev):

     7.9149   8.2757  10.0830  10.6199  11.0255  15.5849  19.9775  22.5691
    23.4510  34.3897

          k =-0.5000-1.0000 0.0000 (   224 PWs)   bands (ev):

     8.3379   8.9464   8.9464  10.2565  11.0181  18.7198  18.7198  20.8908
    21.3110  41.0959

     the Fermi energy is    12.4636 ev

!    total energy              =    -210.40350303 Ry
     Harris-Foulkes estimate   =    -210.40350313 Ry
     estimated scf accuracy    <       0.00000012 Ry

     total all-electron energy =     -3307.282564 Ry

     The total energy is the sum of the following terms:

     one-electron contribution =     -27.85840339 Ry
     hartree contribution      =      30.44176281 Ry
     xc contribution           =     -44.09604920 Ry
     ewald contribution        =     -81.29664583 Ry
     one-center paw contrib.   =     -87.59420185 Ry
     smearing contrib. (-TS)   =       0.00003444 Ry

     convergence has been achieved in   5 iterations

     Writing output data file temp/.save/

     init_run     :      0.11s CPU      0.13s WALL (       1 calls)
     electrons    :      0.51s CPU      0.64s WALL (       1 calls)

     Called by init_run:
     wfcinit      :      0.02s CPU      0.02s WALL (       1 calls)
     potinit      :      0.05s CPU      0.06s WALL (       1 calls)
     hinit0       :      0.03s CPU      0.03s WALL (       1 calls)

     Called by electrons:
     c_bands      :      0.26s CPU      0.29s WALL (       6 calls)
     sum_band     :      0.04s CPU      0.05s WALL (       6 calls)
     v_of_rho     :      0.00s CPU      0.00s WALL (       6 calls)
     newd         :      0.00s CPU      0.00s WALL (       6 calls)
     PAW_pot      :      0.25s CPU      0.33s WALL (       6 calls)
     mix_rho      :      0.00s CPU      0.00s WALL (       6 calls)

     Called by c_bands:
     init_us_2    :      0.00s CPU      0.00s WALL (     377 calls)
     cegterg      :      0.25s CPU      0.29s WALL (     174 calls)

     Called by sum_band:
     sum_band:bec :      0.00s CPU      0.00s WALL (     174 calls)
     addusdens    :      0.00s CPU      0.00s WALL (       6 calls)

     Called by *egterg:
     h_psi        :      0.17s CPU      0.20s WALL (     567 calls)
     s_psi        :      0.00s CPU      0.00s WALL (     567 calls)
     g_psi        :      0.00s CPU      0.00s WALL (     364 calls)
     cdiaghg      :      0.07s CPU      0.08s WALL (     509 calls)

     Called by h_psi:
     h_psi:calbec :      0.01s CPU      0.01s WALL (     567 calls)
     vloc_psi     :      0.16s CPU      0.19s WALL (     567 calls)
     add_vuspsi   :      0.00s CPU      0.00s WALL (     567 calls)

     General routines
     calbec       :      0.01s CPU      0.01s WALL (     741 calls)
     fft          :      0.00s CPU      0.00s WALL (      67 calls)
     ffts         :      0.00s CPU      0.00s WALL (       6 calls)
     fftw         :      0.18s CPU      0.21s WALL (   10806 calls)

     Parallel routines
     fft_scatt_xy :      0.01s CPU      0.01s WALL (   10879 calls)
     fft_scatt_yz :      0.13s CPU      0.16s WALL (   10879 calls)

     PWSCF        :      1.65s CPU      1.90s WALL


   This run was terminated on:  17:16:29   2Jan2020            

=------------------------------------------------------------------------------=
   JOB DONE.
=------------------------------------------------------------------------------=